[Molden Format]
[SCFCONV]
scf-first    1 THROUGH   12
   -108.872163
   -108.902096
   -108.930469
   -108.932281
   -108.933411
   -108.933422
   -108.933430
   -108.933430
   -108.933430
   -108.933430
   -108.933430
   -108.933430
[GEOMETRIES] XYZ
    7
 
 C    -1.115872    -0.220612     0.023971
 O     0.021884     0.600791    -0.024280
 O     1.147735    -0.274299    -0.097254
 H    -1.173925    -0.866870    -0.857291
 H    -1.132316    -0.832683     0.933211
 H    -1.960321     0.472404     0.027957
 H     1.604845    -0.061118     0.724570
[FREQ]
  183.7000
  263.8600
  459.7600
  928.6800
 1090.1300
 1190.8600
 1231.4700
 1439.7700
 1465.8101
 1478.1300
 1530.2100
 3030.9399
 3105.7900
 3149.1101
 3791.6399
[INT]
  141.4600     0.0000
   13.6200     0.0000
    6.7000     0.0000
   20.1300     0.0000
   17.9400     0.0000
    1.7500     0.0000
    5.5700     0.0000
   46.6500     0.0000
    1.2700     0.0000
    8.3900     0.0000
   10.5300     0.0000
   43.9600     0.0000
   56.0200     0.0000
   20.8400     0.0000
   19.9800     0.0000
[FR-COORD]
 C    -2.108693    -0.416896     0.045299
 O     0.041355     1.135331    -0.045883
 O     2.168905    -0.518350    -0.183783
 H    -2.218397    -1.638147    -1.620046
 H    -2.139768    -1.573543     1.763514
 H    -3.704471     0.892714     0.052831
 H     3.032718    -0.115496     1.369239
[FR-NORM-COORD]
vibration     1
    0.000000    -0.010000     0.030000
    0.010000     0.000000    -0.020000
    0.030000     0.050000    -0.040000
    0.050000    -0.120000     0.120000
   -0.050000     0.110000     0.110000
   -0.010000    -0.010000    -0.090000
   -0.480000    -0.710000     0.440000
vibration     2
    0.000000     0.000000    -0.010000
    0.000000     0.010000     0.100000
   -0.010000    -0.010000    -0.060000
    0.370000    -0.320000     0.200000
   -0.340000     0.330000     0.200000
   -0.020000    -0.020000    -0.610000
    0.160000     0.060000    -0.180000
vibration     3
    0.230000    -0.060000    -0.010000
    0.010000     0.210000    -0.010000
   -0.240000    -0.110000     0.020000
    0.510000    -0.090000    -0.010000
    0.540000    -0.110000    -0.040000
   -0.070000    -0.430000     0.030000
   -0.130000    -0.230000    -0.010000
vibration     4
   -0.230000    -0.050000     0.010000
   -0.130000     0.310000     0.000000
    0.320000    -0.230000    -0.020000
    0.130000    -0.070000     0.020000
    0.110000    -0.080000    -0.020000
   -0.600000    -0.500000     0.030000
    0.080000    -0.110000     0.090000
vibration     5
   -0.360000    -0.150000     0.010000
    0.410000     0.060000    -0.030000
   -0.130000     0.120000     0.030000
    0.040000    -0.200000     0.040000
    0.000000    -0.230000    -0.070000
   -0.520000    -0.390000     0.020000
    0.280000    -0.150000    -0.140000
vibration     6
    0.000000     0.020000     0.140000
    0.000000    -0.010000    -0.060000
    0.000000     0.000000     0.000000
    0.490000     0.440000    -0.200000
   -0.430000    -0.440000    -0.180000
   -0.030000    -0.030000    -0.260000
   -0.090000     0.070000     0.030000
vibration     7
   -0.030000     0.180000    -0.020000
   -0.010000    -0.130000     0.020000
    0.010000     0.010000    -0.010000
    0.430000    -0.060000     0.120000
    0.520000     0.020000    -0.100000
   -0.500000    -0.410000     0.040000
   -0.130000     0.130000     0.040000
vibration     8
    0.010000    -0.030000    -0.010000
    0.060000     0.020000     0.040000
    0.000000    -0.030000    -0.050000
   -0.090000    -0.060000     0.020000
   -0.130000     0.030000     0.030000
    0.000000    -0.030000     0.080000
   -0.740000     0.610000     0.180000
vibration     9
    0.100000     0.040000     0.000000
    0.010000     0.000000     0.000000
   -0.010000     0.010000     0.010000
   -0.550000     0.060000     0.020000
   -0.440000     0.010000    -0.020000
   -0.400000    -0.560000    -0.080000
    0.090000    -0.060000    -0.020000
vibration    10
    0.010000     0.000000    -0.050000
    0.000000     0.000000    -0.010000
    0.000000     0.000000     0.000000
    0.410000    -0.110000     0.020000
   -0.500000     0.190000     0.090000
   -0.040000    -0.060000     0.710000
    0.070000    -0.050000    -0.020000
vibration    11
    0.010000     0.060000     0.000000
    0.000000     0.020000     0.000000
    0.000000     0.000000     0.000000
   -0.060000    -0.550000     0.430000
   -0.140000    -0.550000    -0.390000
    0.090000     0.140000     0.040000
    0.020000    -0.010000     0.000000
vibration    12
   -0.030000    -0.040000     0.010000
    0.000000     0.000000     0.000000
    0.000000     0.000000     0.000000
    0.020000     0.310000     0.440000
    0.000000     0.400000    -0.620000
    0.310000    -0.260000     0.000000
    0.000000     0.000000     0.000000
vibration    13
   -0.010000     0.000000    -0.090000
    0.000000     0.000000     0.000000
    0.000000     0.000000     0.000000
    0.020000     0.450000     0.610000
    0.010000    -0.350000     0.510000
    0.120000    -0.100000    -0.020000
    0.000000     0.000000     0.000000
vibration    14
   -0.060000     0.070000     0.010000
    0.000000     0.000000     0.000000
    0.000000     0.000000     0.000000
   -0.020000    -0.200000    -0.300000
   -0.010000    -0.110000     0.190000
    0.700000    -0.570000     0.000000
    0.000000     0.000000     0.000000
vibration    15
    0.000000     0.000000     0.000000
    0.000000     0.000000     0.000000
    0.030000     0.010000     0.050000
    0.000000     0.000000     0.000000
    0.000000     0.000000     0.000000
    0.000000     0.000000     0.000000
   -0.470000    -0.230000    -0.850000
