[Molden Format]
[FREQ]
  183.7000
  263.8600
[FR-COORD]
 C    -2.108693    -0.416896     0.045299
 O     0.041355     1.135331    -0.045883
 O     2.168905    -0.518350    -0.183783
 H    -2.218397    -1.638147    -1.620046
 H    -2.139768    -1.573543     1.763514
 H    -3.704471     0.892714     0.052831
 H     3.032718    -0.115496     1.369239
[FR-NORM-COORD]
vibration     1
    0.000000    -0.010000     0.030000
    0.010000     0.000000    -0.020000
    0.030000     0.050000    -0.040000
    0.050000    -0.120000     0.120000
   -0.050000     0.110000     0.110000
   -0.010000    -0.010000    -0.090000
   -0.480000    -0.710000     0.440000
vibration     2
    0.000000     0.000000    -0.010000
    0.000000     0.010000     0.100000
   -0.010000    -0.010000    -0.060000
    0.370000    -0.320000     0.200000
   -0.340000     0.330000     0.200000
   -0.020000    -0.020000    -0.610000
    0.160000     0.060000    -0.180000
