[Molden Format]
[FREQ]
 205.054497
 274.231952
 442.999220
 832.433562
1033.457967
1168.687967
1198.083992
1348.883197
1439.688318
1460.500901
1503.352207
3054.875803
3153.606899
3178.830830
3751.167722
[FR-COORD]
C  -3.872994795259    -0.320687782850    -0.000036704439
O  -1.261524198613    -0.512606330194     0.650588799012
O  -0.060440945308     1.641079187018    -0.638340565978
H  -4.649893826369     1.506526448914     0.621003352702
H  -4.155200926555    -0.565097947068    -2.048312278086
H  -4.775981832652    -1.875448511173     1.044020417284
H   1.066844116213     0.715661303509    -1.756682837697
[FR-NORM-COORD]
vibration 1
-9.0517680241E-05 -1.8687870901E-02 -2.7678957699E-02
-3.4216329351E-03 2.9167242966E-02 2.3215357495E-02
4.7536048183E-02 -7.4226092875E-03 4.9686762932E-02
-3.3111983384E-02 -9.5637144205E-03 -1.0138769756E-01
3.2053384430E-02 -8.9036372096E-02 -2.6310604463E-02
1.9576605867E-04 -4.0683287024E-03 -4.1676268205E-03
-6.9824363703E-01 -1.9784339574E-02 -6.9542480903E-01
vibration 2
-1.7008429136E-03 -6.9515055360E-03 -3.2876660583E-03
-1.4876419371E-02 5.6709738168E-02 6.7583649726E-02
1.7143584695E-02 -3.5516828610E-02 -5.5935006280E-02
-2.2432149740E-01 -2.4806973746E-01 4.3591852199E-01
1.4025290149E-01 5.0842069816E-01 -8.1504526765E-02
9.9321307515E-02 -3.8275861996E-01 -4.7475439496E-01
-3.0970522908E-02 -1.3113482787E-01 -2.5372387444E-02
vibration 3
-1.8089321139E-01 -1.4125730219E-01 7.3969571809E-02
-9.7547913634E-02 1.2473250382E-01 -1.2878805318E-01
2.5762969770E-01 3.9151018560E-02 3.1989491145E-02
-4.1560257275E-01 -2.5741119526E-01 1.2479969427E-01
-4.3631601081E-01 -3.1192863462E-01 1.2786215336E-01
2.2919997044E-01 -2.4832630795E-01 2.7581196780E-01
2.3736136984E-01 -1.0032098323E-01 1.2651791762E-01
vibration 4
-1.9396889596E-01 -5.4596225568E-02 -2.6991731124E-03
-3.8776709558E-02 -3.4876169429E-01 2.4591552881E-01
2.1548726118E-01 3.7569731375E-01 -2.1574156499E-01
9.9068455220E-02 7.9906222626E-02 -5.7873633913E-02
7.8685240597E-02 8.6288958166E-02 -4.7414115317E-02
-6.6345709464E-01 7.8711305240E-02 -1.9311860565E-01
-7.7804365460E-03 -2.1878421024E-02 -1.4835304893E-01
vibration 5
-3.9446540143E-01 -4.2310273307E-02 -3.8271673905E-02
3.6565582293E-01 8.8190937607E-02 1.9321322674E-02
-3.1172568820E-02 -9.6779037110E-02 4.0047034952E-02
-4.9940230964E-02 1.2566427291E-01 -1.3876930033E-01
-4.8129579120E-02 1.6938639646E-01 -9.7272242528E-02
-6.7549709900E-01 5.1805980883E-02 -1.7815915954E-01
1.6496210167E-01 2.9360931863E-01 -7.2062470616E-02
vibration 6
2.1731893330E-02 -9.0205114952E-02 -9.4618902579E-02
-7.3743600971E-03 4.4787485012E-02 3.8945159468E-02
-5.0904773876E-04 5.3358901303E-03 1.0494583180E-03
6.1341034397E-01 1.6907136135E-02 3.2452136111E-01
-5.9947276300E-01 2.3433433555E-01 -5.0546830981E-02
-8.9560515831E-02 1.5159226040E-01 1.6662475669E-01
-5.8201597705E-02 -1.2353833845E-01 5.2053241879E-02
vibration 7
-3.8424394412E-02 1.1935418777E-01 -1.1936741489E-01
5.4749022315E-02 -6.5971977652E-02 8.0530022734E-02
-1.7666737652E-02 -9.0903964662E-03 -8.9212343069E-03
-3.5968032389E-01 -1.2086243269E-01 1.7506982458E-01
-4.7786496760E-01 -2.1324736706E-01 -1.5749805588E-02
6.4488481011E-01 -7.2637303108E-02 2.0997574785E-01
6.1942156930E-02 1.7595322803E-01 -8.3528887694E-02
vibration 8
-2.2017154458E-02 2.8519173621E-02 -9.6150907406E-03
6.4804190695E-02 -1.2479375240E-02 -2.9275187804E-02
-2.2061292999E-02 4.8449115615E-02 1.5508674770E-02
-9.6748526729E-02 3.5605575507E-03 -3.7400794330E-02
-1.9639954130E-02 -6.0563454241E-02 -1.4555211720E-03
8.6805486551E-02 -3.3656106559E-02 -8.6663916578E-03
-3.8648404741E-01 -8.2007876522E-01 3.8059542235E-01
vibration 9
-1.0915784733E-01 -1.3570628807E-02 -7.6444861749E-03
-1.6478176227E-02 -3.2984745137E-03 1.6244255139E-04
2.4147206730E-03 2.7269162348E-03 -1.2209009486E-03
4.8552614622E-01 2.3810297314E-01 -3.7132283981E-02
4.7075061427E-01 1.5691322058E-01 -9.8186004334E-02
5.7085640689E-01 -2.2511039151E-01 2.4756219550E-01
-3.2282768531E-03 8.6918142646E-04 -4.3548205318E-03
vibration 10
-4.8612886089E-03 3.7596117697E-02 4.5939358809E-02
-3.3693016577E-03 7.0658463962E-03 7.4290948461E-03
1.3441006274E-04 -1.6510177519E-03 -6.7373381987E-04
3.4202790386E-01 2.3999647018E-01 -1.8480721539E-01
-3.2548140006E-01 -3.6612393220E-01 1.1682306180E-01
7.4829366684E-02 -4.3228915643E-01 -5.8357740556E-01
1.7893939152E-02 2.4489224474E-02 -3.0581429429E-03
vibration 11
2.5277972771E-02 -4.0753775599E-02 3.9920230464E-02
3.6686757266E-03 -1.0963918781E-02 9.8618189673E-03
-3.8609643991E-04 1.2292573843E-03 -1.1954232817E-03
-1.8566845511E-01 1.2938156520E-01 -6.6111213316E-01
-3.3870829935E-01 5.9431015430E-01 -9.3699626507E-03
1.6682518567E-01 -9.0109892062E-02 5.9651452962E-02
4.2462940255E-03 6.5356789171E-03 -2.3990721063E-03
vibration 12
3.9364258515E-02 -5.3215303195E-03 1.7827648284E-02
1.4873848756E-03 2.1516820400E-04 1.0807357881E-04
-4.0586753143E-04 9.3892041851E-06 1.4735109524E-04
-2.0523325349E-01 5.0834253776E-01 1.8312668866E-01
-7.3857188892E-02 -8.2655378002E-02 -6.4314083126E-01
-2.1132435925E-01 -3.6422511563E-01 2.4651505188E-01
4.1972371288E-03 -1.6166009793E-03 -2.9834716827E-03
vibration 13
-1.8333515485E-02 4.9461889999E-02 7.9394027874E-02
-7.8364480160E-05 -3.1931805806E-04 4.4609518756E-05
1.5943029633E-05 -8.1473734222E-05 -3.9563024863E-04
2.4734788922E-01 -6.1735167563E-01 -1.9747665620E-01
-8.3344715982E-02 -7.4016892137E-02 -6.9314998114E-01
5.2862955464E-02 1.0680887190E-01 -5.0190303064E-02
2.5808308980E-03 1.5492862558E-03 3.5494820887E-04
vibration 14
-1.5998430628E-02 -8.0391542401E-02 4.5526258794E-02
-3.1695184827E-04 -9.1049458644E-04 7.2493045820E-04
4.3216902937E-04 7.3235931311E-04 -3.8615786197E-04
-1.5514664196E-01 3.6552407287E-01 1.4305664909E-01
-3.1644379326E-02 -4.9389001037E-02 -2.5438341165E-01
3.7506953169E-01 6.4433684239E-01 -4.3481119623E-01
5.2485327589E-04 2.7491316736E-04 -1.7151336161E-03
vibration 15
4.3950320207E-04 -3.0952423163E-04 2.7575313062E-04
-1.1192199491E-03 -1.1046235241E-03 9.4534082932E-04
3.9531130963E-02 -3.0815845062E-02 -3.8998198886E-02
-1.9247845928E-03 2.6046378194E-03 5.5284920961E-04
1.4319093105E-04 -7.3803725954E-07 -3.9408154746E-03
-1.8894507098E-03 -8.0508179994E-04 9.9286611128E-04
-6.1124069895E-01 5.0853180946E-01 6.0308518468E-01
